<?xml version="1.0" ?>
<VTKFile byte_order="LittleEndian" type="UnstructuredGrid" version="0.1">
<UnstructuredGrid>
<Piece NumberOfCells="0" NumberOfPoints="12">
<Points>
<DataArray NumberOfComponents="3" format="ascii" type="Float32">0.0 1.0 1.618033988749895 0.0 -1.0 1.618033988749895 0.0 1.0 -1.618033988749895 0.0 -1.0 -1.618033988749895 1.618033988749895 0.0 1.0 1.618033988749895 0.0 -1.0 -1.618033988749895 0.0 1.0 -1.618033988749895 0.0 -1.0 1.0 1.618033988749895 0.0 -1.0 1.618033988749895 0.0 1.0 -1.618033988749895 0.0 -1.0 -1.618033988749895 0.0 </DataArray>
</Points>
<Cells>
<DataArray Name="connectivity" format="ascii" type="Int32">0</DataArray>
<DataArray Name="offsets" format="ascii" type="Int32">0</DataArray>
<DataArray Name="types" format="ascii" type="UInt8">1</DataArray>
</Cells>
<PointData>
<DataArray Name="Points" NumberOfComponents="3" format="ascii" type="Float32">0.0 1.0 1.618033988749895 0.0 -1.0 1.618033988749895 0.0 1.0 -1.618033988749895 0.0 -1.0 -1.618033988749895 1.618033988749895 0.0 1.0 1.618033988749895 0.0 -1.0 -1.618033988749895 0.0 1.0 -1.618033988749895 0.0 -1.0 1.0 1.618033988749895 0.0 -1.0 1.618033988749895 0.0 1.0 -1.618033988749895 0.0 -1.0 -1.618033988749895 0.0 </DataArray>
<DataArray Name="colors" format="ascii" type="Float32">0.0 0.0 0.0 0.0 0.0 0.0 0.0 0.0 0.0 0.0 0.0 0.0 </DataArray>
</PointData>
<CellData/>
</Piece>
</UnstructuredGrid>
</VTKFile>
